<LesHouchesEvents version="1.0">
<header>
</header>
<init>
 2212 -2212  9.8000000000E+02  9.8000000000E+02 -1 -1 -1 -1 3 1
  3.1118240381E+10  1.7982868780E+10  1.0000000000E+00 1
<generator version="2.3.1">WHIZARD</generator>
<xsecinfo neve="100000" totxsec="3.1118240381E+10" />
</init>
<event>
 4 1  1.0000000000E+00  4.2708442111E-03 -1.0000000000E+00  1.1780000000E-01
 2 -1 0 0 501 0  0.0000000000E+00  0.0000000000E+00  5.1054390375E-03  5.1054390375E-03  0.0000000000E+00  0.0000000000E+00  9.0000000000E+00
 -2 -1 0 0 0 501  0.0000000000E+00  0.0000000000E+00 -8.9317050609E-04  8.9317050609E-04  0.0000000000E+00  0.0000000000E+00  9.0000000000E+00
 11 1 1 2 0 0 -1.2142388695E-03  1.0587863473E-04  4.4619791247E-03  4.6535966693E-03  5.1099700000E-04  0.0000000000E+00  9.0000000000E+00
 -11 1 1 2 0 0  1.2142388695E-03 -1.0587863473E-04 -2.4971059332E-04  1.3450128742E-03  5.1099700000E-04  0.0000000000E+00  9.0000000000E+00
<weight name="sqme_prc">2.6062152536E+09</weight>
</event>
<event>
 4 1  1.0000000000E+00  3.2786718887E-03 -1.0000000000E+00  1.1780000000E-01
 -1 -1 0 0 0 501  0.0000000000E+00  0.0000000000E+00  5.1237227259E-03  5.1237227259E-03  0.0000000000E+00  0.0000000000E+00  9.0000000000E+00
 1 -1 0 0 501 0  0.0000000000E+00  0.0000000000E+00 -5.2450580997E-04  5.2450580997E-04  0.0000000000E+00  0.0000000000E+00  9.0000000000E+00
 11 1 1 2 0 0 -1.8289241204E-04  1.2311054019E-03  3.9131200715E-03  4.1379580439E-03  5.1099700000E-04  0.0000000000E+00  9.0000000000E+00
 -11 1 1 2 0 0  1.8289241204E-04 -1.2311054019E-03  6.8609684441E-04  1.5102704920E-03  5.1099700000E-04  0.0000000000E+00  9.0000000000E+00
<weight name="sqme_prc">2.2062060193E+09</weight>
</event>
<event>
 4 1  1.0000000000E+00  4.8639436960E-03 -1.0000000000E+00  1.1780000000E-01
 -2 -1 0 0 0 501  0.0000000000E+00  0.0000000000E+00  3.1370500499E-04  3.1370500499E-04  0.0000000000E+00  0.0000000000E+00  9.0000000000E+00
 2 -1 0 0 501 0  0.0000000000E+00  0.0000000000E+00 -1.8853658614E-02  1.8853658614E-02  0.0000000000E+00  0.0000000000E+00  9.0000000000E+00
 11 1 1 2 0 0  8.1974213985E-04 -3.8075835897E-04 -1.7936314820E-02  1.7966342459E-02  5.1099700000E-04  0.0000000000E+00  9.0000000000E+00
 -11 1 1 2 0 0 -8.1974213985E-04  3.8075835897E-04 -6.0363878821E-04  1.2010211590E-03  5.1099700000E-04  0.0000000000E+00  9.0000000000E+00
<weight name="sqme_prc">5.6419432624E+08</weight>
</event>
<event>
 4 1  1.0000000000E+00  8.0224659906E-03 -1.0000000000E+00  1.1780000000E-01
 -2 -1 0 0 0 501  0.0000000000E+00  0.0000000000E+00  5.8406712249E-04  5.8406712249E-04  0.0000000000E+00  0.0000000000E+00  9.0000000000E+00
 2 -1 0 0 501 0  0.0000000000E+00  0.0000000000E+00 -2.7548186712E-02  2.7548186712E-02  0.0000000000E+00  0.0000000000E+00  9.0000000000E+00
 11 1 1 2 0 0  2.7716423649E-03 -2.2477034423E-03 -7.3131854611E-03  8.1534024607E-03  5.1099700000E-04  0.0000000000E+00  9.0000000000E+00
 -11 1 1 2 0 0 -2.7716423649E-03  2.2477034423E-03 -1.9650934128E-02  1.9978851374E-02  5.1099700000E-04  0.0000000000E+00  9.0000000000E+00
<weight name="sqme_prc">2.2773068644E+08</weight>
</event>
<event>
 4 1  1.0000000000E+00  3.6932484127E-03 -1.0000000000E+00  1.1780000000E-01
 -2 -1 0 0 0 501  0.0000000000E+00  0.0000000000E+00  6.7274144478E-03  6.7274144478E-03  0.0000000000E+00  0.0000000000E+00  9.0000000000E+00
 2 -1 0 0 501 0  0.0000000000E+00  0.0000000000E+00 -5.0688432917E-04  5.0688432917E-04  0.0000000000E+00  0.0000000000E+00  9.0000000000E+00
 11 1 1 2 0 0 -8.1366823668E-04 -6.6914424711E-05  6.1964442130E-03  6.2708510075E-03  5.1099700000E-04  0.0000000000E+00  9.0000000000E+00
 -11 1 1 2 0 0  8.1366823668E-04  6.6914424711E-05  2.4085905626E-05  9.6344776946E-04  5.1099700000E-04  0.0000000000E+00  9.0000000000E+00
<weight name="sqme_prc">1.9880466951E+09</weight>
</event>
<event>
 4 1  1.0000000000E+00  6.6303510340E-02 -1.0000000000E+00  1.1780000000E-01
 -2 -1 0 0 0 501  0.0000000000E+00  0.0000000000E+00  6.1629458032E-03  6.1629458032E-03  0.0000000000E+00  0.0000000000E+00  9.0000000000E+00
 2 -1 0 0 501 0  0.0000000000E+00  0.0000000000E+00 -1.7833012101E-01  1.7833012101E-01  0.0000000000E+00  0.0000000000E+00  9.0000000000E+00
 11 1 1 2 0 0 -2.8400960676E-02  1.4391683083E-02 -6.0423277279E-02  6.8300575871E-02  5.1099700000E-04  0.0000000000E+00  9.0000000000E+00
 -11 1 1 2 0 0  2.8400960676E-02 -1.4391683083E-02 -1.1174389792E-01  1.1619249094E-01  5.1099700000E-04  0.0000000000E+00  9.0000000000E+00
<weight name="sqme_prc">1.9754343158E+06</weight>
</event>
<event>
 4 1  1.0000000000E+00  5.9309789470E-03 -1.0000000000E+00  1.1780000000E-01
 -2 -1 0 0 0 501  0.0000000000E+00  0.0000000000E+00  3.6943326293E-04  3.6943326293E-04  0.0000000000E+00  0.0000000000E+00  9.0000000000E+00
 2 -1 0 0 501 0  0.0000000000E+00  0.0000000000E+00 -2.3804374700E-02  2.3804374700E-02  0.0000000000E+00  0.0000000000E+00  9.0000000000E+00
 11 1 1 2 0 0 -2.0910056202E-03 -1.1184452741E-03 -1.8670101657E-02  1.8827029456E-02  5.1099700000E-04  0.0000000000E+00  9.0000000000E+00
 -11 1 1 2 0 0  2.0910056202E-03  1.1184452741E-03 -4.7648397805E-03  5.3467785070E-03  5.1099700000E-04  0.0000000000E+00  9.0000000000E+00
<weight name="sqme_prc">3.0794072585E+08</weight>
</event>
<event>
 4 1  1.0000000000E+00  6.4374963065E-03 -1.0000000000E+00  1.1780000000E-01
 -2 -1 0 0 0 501  0.0000000000E+00  0.0000000000E+00  3.0679545024E-03  3.0679545024E-03  0.0000000000E+00  0.0000000000E+00  9.0000000000E+00
 2 -1 0 0 501 0  0.0000000000E+00  0.0000000000E+00 -3.3769534932E-03  3.3769534932E-03  0.0000000000E+00  0.0000000000E+00  9.0000000000E+00
 11 1 1 2 0 0 -1.4043027011E-04  6.8044855586E-04  2.9501175692E-03  3.0736041554E-03  5.1099700000E-04  0.0000000000E+00  9.0000000000E+00
 -11 1 1 2 0 0  1.4043027011E-04 -6.8044855586E-04 -3.2591165599E-03  3.3713038402E-03  5.1099700000E-04  0.0000000000E+00  9.0000000000E+00
<weight name="sqme_prc">1.2195978541E+09</weight>
</event>
<event>
 4 1  1.0000000000E+00  2.8540934993E-03 -1.0000000000E+00  1.1780000000E-01
 -2 -1 0 0 0 501  0.0000000000E+00  0.0000000000E+00  1.3451361505E-04  1.3451361505E-04  0.0000000000E+00  0.0000000000E+00  9.0000000000E+00
 2 -1 0 0 501 0  0.0000000000E+00  0.0000000000E+00 -1.5139452055E-02  1.5139452055E-02  0.0000000000E+00  0.0000000000E+00  9.0000000000E+00
 11 1 1 2 0 0  6.2099286285E-04  3.0349736734E-04 -1.4063378501E-03  1.6482253700E-03  5.1099700000E-04  0.0000000000E+00  9.0000000000E+00
 -11 1 1 2 0 0 -6.2099286285E-04 -3.0349736734E-04 -1.3598600590E-02  1.3625740300E-02  5.1099700000E-04  0.0000000000E+00  9.0000000000E+00
<weight name="sqme_prc">7.0395612887E+08</weight>
</event>
<event>
 4 1  1.0000000000E+00  1.9028827113E-03 -1.0000000000E+00  1.1780000000E-01
 1 -1 0 0 501 0  0.0000000000E+00  0.0000000000E+00  1.1309148734E-03  1.1309148734E-03  0.0000000000E+00  0.0000000000E+00  9.0000000000E+00
 -1 -1 0 0 0 501  0.0000000000E+00  0.0000000000E+00 -8.0044986106E-04  8.0044986106E-04  0.0000000000E+00  0.0000000000E+00  9.0000000000E+00
 11 1 1 2 0 0 -7.4957876130E-04 -5.9490798557E-05 -1.1952927578E-04  9.1695837216E-04  5.1099700000E-04  0.0000000000E+00  9.0000000000E+00
 -11 1 1 2 0 0  7.4957876130E-04  5.9490798557E-05  4.4999428808E-04  1.0144063623E-03  5.1099700000E-04  0.0000000000E+00  9.0000000000E+00
<weight name="sqme_prc">1.4190625192E+10</weight>
</event>
<event>
 4 1  1.0000000000E+00  1.1387815412E-03 -1.0000000000E+00  1.1780000000E-01
 2 -1 0 0 501 0  0.0000000000E+00  0.0000000000E+00  2.3276806187E-03  2.3276806187E-03  0.0000000000E+00  0.0000000000E+00  9.0000000000E+00
 -2 -1 0 0 0 501  0.0000000000E+00  0.0000000000E+00 -1.3928278950E-04  1.3928278950E-04  0.0000000000E+00  0.0000000000E+00  9.0000000000E+00
 11 1 1 2 0 0 -7.8109960225E-07 -1.3115732421E-04  1.5582416193E-03  1.6451254457E-03  5.1099700000E-04  0.0000000000E+00  9.0000000000E+00
 -11 1 1 2 0 0  7.8109960225E-07  1.3115732421E-04  6.3015620993E-04  8.2183796258E-04  5.1099700000E-04  0.0000000000E+00  9.0000000000E+00
<weight name="sqme_prc">8.1151412715E+09</weight>
</event>
<event>
 4 1  1.0000000000E+00  1.2778965165E-02 -1.0000000000E+00  1.1780000000E-01
 2 -1 0 0 501 0  0.0000000000E+00  0.0000000000E+00  1.3345655804E-02  1.3345655804E-02  0.0000000000E+00  0.0000000000E+00  9.0000000000E+00
